 Entering Gaussian System, Link 0=g09
 Input=ccspe.gjf
 Output=ccspe.log
 Initial command:
 /opt/g09.d01/g09/l1.exe "/tmp/zongzi/64367/Gau-30749.inp" -scrdir="/tmp/zongzi/64367/"
 Entering Link 1 = /opt/g09.d01/g09/l1.exe PID=     30750.
  
 Copyright (c) 1988,1990,1992,1993,1995,1998,2003,2009,2013,
            Gaussian, Inc.  All Rights Reserved.
  
 This is part of the Gaussian(R) 09 program.  It is based on
 the Gaussian(R) 03 system (copyright 2003, Gaussian, Inc.),
 the Gaussian(R) 98 system (copyright 1998, Gaussian, Inc.),
 the Gaussian(R) 94 system (copyright 1995, Gaussian, Inc.),
 the Gaussian 92(TM) system (copyright 1992, Gaussian, Inc.),
 the Gaussian 90(TM) system (copyright 1990, Gaussian, Inc.),
 the Gaussian 88(TM) system (copyright 1988, Gaussian, Inc.),
 the Gaussian 86(TM) system (copyright 1986, Carnegie Mellon
 University), and the Gaussian 82(TM) system (copyright 1983,
 Carnegie Mellon University). Gaussian is a federally registered
 trademark of Gaussian, Inc.
  
 This software contains proprietary and confidential information,
 including trade secrets, belonging to Gaussian, Inc.
  
 This software is provided under written license and may be
 used, copied, transmitted, or stored only in accord with that
 written license.
  
 The following legend is applicable only to US Government
 contracts under FAR:
  
                    RESTRICTED RIGHTS LEGEND
  
 Use, reproduction and disclosure by the US Government is
 subject to restrictions as set forth in subparagraphs (a)
 and (c) of the Commercial Computer Software - Restricted
 Rights clause in FAR 52.227-19.
  
 Gaussian, Inc.
 340 Quinnipiac St., Bldg. 40, Wallingford CT 06492
  
  
 ---------------------------------------------------------------
 Warning -- This program may not be used in any manner that
 competes with the business of Gaussian, Inc. or will provide
 assistance to any competitor of Gaussian, Inc.  The licensee
 of this program is prohibited from giving any competitor of
 Gaussian, Inc. access to this program.  By using this program,
 the user acknowledges that Gaussian, Inc. is engaged in the
 business of creating and licensing software in the field of
 computational chemistry and represents and warrants to the
 licensee that it is not a competitor of Gaussian, Inc. and that
 it will not use this program in any manner prohibited above.
 ---------------------------------------------------------------
  

 Cite this work as:
 Gaussian 09, Revision D.01,
 M. J. Frisch, G. W. Trucks, H. B. Schlegel, G. E. Scuseria, 
 M. A. Robb, J. R. Cheeseman, G. Scalmani, V. Barone, B. Mennucci, 
 G. A. Petersson, H. Nakatsuji, M. Caricato, X. Li, H. P. Hratchian, 
 A. F. Izmaylov, J. Bloino, G. Zheng, J. L. Sonnenberg, M. Hada, 
 M. Ehara, K. Toyota, R. Fukuda, J. Hasegawa, M. Ishida, T. Nakajima, 
 Y. Honda, O. Kitao, H. Nakai, T. Vreven, J. A. Montgomery, Jr., 
 J. E. Peralta, F. Ogliaro, M. Bearpark, J. J. Heyd, E. Brothers, 
 K. N. Kudin, V. N. Staroverov, T. Keith, R. Kobayashi, J. Normand, 
 K. Raghavachari, A. Rendell, J. C. Burant, S. S. Iyengar, J. Tomasi, 
 M. Cossi, N. Rega, J. M. Millam, M. Klene, J. E. Knox, J. B. Cross, 
 V. Bakken, C. Adamo, J. Jaramillo, R. Gomperts, R. E. Stratmann, 
 O. Yazyev, A. J. Austin, R. Cammi, C. Pomelli, J. W. Ochterski, 
 R. L. Martin, K. Morokuma, V. G. Zakrzewski, G. A. Voth, 
 P. Salvador, J. J. Dannenberg, S. Dapprich, A. D. Daniels, 
 O. Farkas, J. B. Foresman, J. V. Ortiz, J. Cioslowski, 
 and D. J. Fox, Gaussian, Inc., Wallingford CT, 2013.
 
 ******************************************
 Gaussian 09:  ES64L-G09RevD.01 24-Apr-2013
                 1-Nov-2017 
 ******************************************
 %chk=ccspe.chk
 ------------------
 # force uhf/6-31+g
 ------------------
 1/10=7,30=1,38=1/1,3;
 2/12=2,17=6,18=5,40=1/2;
 3/5=1,6=6,7=10,11=2,16=1,25=1,30=1,71=1,116=2/1,2,3;
 4//1;
 5/5=2,38=5/2;
 6/7=2,8=2,9=2,10=2,28=1/1;
 7/29=1/1,2,3,16;
 1/10=7,30=1/3;
 99//99;
 -------------------
 Title Card Required
 -------------------
 Symbolic Z-matrix:
 Charge =  0 Multiplicity = 2
 Br                   -2.5      -0.93284   0. 
 H                    -3.94     -0.93284   0. 
 F                    -6.53415  -0.93284   0. 
 

 GradGradGradGradGradGradGradGradGradGradGradGradGradGradGradGradGradGrad
 Berny optimization.
 Initialization pass.
 Trust Radius=3.00D-01 FncErr=1.00D-07 GrdErr=1.00D-07
 Number of steps in this run=      2 maximum allowed number of steps=      2.
 GradGradGradGradGradGradGradGradGradGradGradGradGradGradGradGradGradGrad

                          Input orientation:                          
 ---------------------------------------------------------------------
 Center     Atomic      Atomic             Coordinates (Angstroms)
 Number     Number       Type             X           Y           Z
 ---------------------------------------------------------------------
      1         35           0       -2.500000   -0.932836    0.000000
      2          1           0       -3.940000   -0.932836    0.000000
      3          9           0       -6.534148   -0.932836    0.000000
 ---------------------------------------------------------------------
                    Distance matrix (angstroms):
                    1          2          3
     1  Br   0.000000
     2  H    1.440000   0.000000
     3  F    4.034148   2.594148   0.000000
 Stoichiometry    BrFH(2)
 Framework group  C*V[C*(FHBr)]
 Deg. of freedom     2
 Full point group                 C*V     NOp   4
 Largest Abelian subgroup         C2V     NOp   4
 Largest concise Abelian subgroup C1      NOp   1
                         Standard orientation:                         
 ---------------------------------------------------------------------
 Center     Atomic      Atomic             Coordinates (Angstroms)
 Number     Number       Type             X           Y           Z
 ---------------------------------------------------------------------
      1         35           0        0.000000    0.000000    0.838830
      2          1           0        0.000000    0.000000   -0.601170
      3          9           0        0.000000    0.000000   -3.195318
 ---------------------------------------------------------------------
 Rotational constants (GHZ):      0.0000000      2.0245341      2.0245341
 Standard basis: 6-31+G (6D, 7F)
 There are    24 symmetry adapted cartesian basis functions of A1  symmetry.
 There are     1 symmetry adapted cartesian basis functions of A2  symmetry.
 There are     9 symmetry adapted cartesian basis functions of B1  symmetry.
 There are     9 symmetry adapted cartesian basis functions of B2  symmetry.
 There are    24 symmetry adapted basis functions of A1  symmetry.
 There are     1 symmetry adapted basis functions of A2  symmetry.
 There are     9 symmetry adapted basis functions of B1  symmetry.
 There are     9 symmetry adapted basis functions of B2  symmetry.
    43 basis functions,   111 primitive gaussians,    43 cartesian basis functions
    23 alpha electrons       22 beta electrons
       nuclear repulsion energy        56.0178037277 Hartrees.
 NAtoms=    3 NActive=    3 NUniq=    3 SFac= 1.00D+00 NAtFMM=   60 NAOKFM=F Big=F
 Integral buffers will be    131072 words long.
 Raffenetti 2 integral format.
 Two-electron integral symmetry is turned on.
 One-electron integrals computed using PRISM.
 NBasis=    43 RedAO= T EigKep=  2.89D-03  NBF=    24     1     9     9
 NBsUse=    43 1.00D-06 EigRej= -1.00D+00 NBFU=    24     1     9     9
 ExpMin= 3.50D-02 ExpMax= 5.74D+05 ExpMxC= 5.74D+03 IAcc=3 IRadAn=         5 AccDes= 0.00D+00
 Harris functional with IExCor=  205 and IRadAn=       5 diagonalized for initial guess.
 HarFok:  IExCor=  205 AccDes= 0.00D+00 IRadAn=         5 IDoV= 1 UseB2=F ITyADJ=14
 ICtDFT=  3500011 ScaDFX=  1.000000  1.000000  1.000000  1.000000
 FoFCou: FMM=F IPFlag=           0 FMFlag=      100000 FMFlg1=           0
         NFxFlg=           0 DoJE=T BraDBF=F KetDBF=T FulRan=T
         wScrn=  0.000000 ICntrl=     500 IOpCl=  0 I1Cent=   200000004 NGrid=           0
         NMat0=    1 NMatS0=      1 NMatT0=    0 NMatD0=    1 NMtDS0=    0 NMtDT0=    0
 Petite list used in FoFCou.
 Initial guess orbital symmetries:
 Alpha Orbitals:
       Occupied  (SG) (SG) (SG) (PI) (PI) (SG) (SG) (SG) (PI) (PI)
                 (SG) (PI) (PI) (DLTA) (DLTA) (SG) (SG) (SG) (SG)
                 (PI) (PI) (PI) (PI)
       Virtual   (SG) (SG) (SG) (PI) (PI) (SG) (PI) (PI) (SG) (SG)
                 (PI) (PI) (SG) (SG) (PI) (PI) (SG) (SG) (SG) (SG)
 Beta  Orbitals:
       Occupied  (SG) (SG) (SG) (PI) (PI) (SG) (SG) (SG) (PI) (PI)
                 (SG) (PI) (PI) (DLTA) (DLTA) (SG) (SG) (SG) (SG)
                 (PI) (PI) (PI)
       Virtual   (PI) (SG) (SG) (SG) (PI) (PI) (SG) (PI) (PI) (SG)
                 (SG) (PI) (PI) (SG) (SG) (PI) (PI) (SG) (SG) (SG)
                 (SG)
 Initial guess <Sx>= 0.0000 <Sy>= 0.0000 <Sz>= 0.5000 <S**2>= 0.7500 S= 0.5000
 Keep R1 and R2 ints in memory in symmetry-blocked form, NReq=1463999.
 Requested convergence on RMS density matrix=1.00D-08 within 128 cycles.
 Requested convergence on MAX density matrix=1.00D-06.
 Requested convergence on             energy=1.00D-06.
 No special actions if energy rises.
 SCF Done:  E(UHF) =  -2669.71391458     A.U. after   15 cycles
            NFock= 15  Conv=0.32D-08     -V/T= 2.0028
 <Sx>= 0.0000 <Sy>= 0.0000 <Sz>= 0.5000 <S**2>= 0.7519 S= 0.5010
 <L.S>= 0.000000000000E+00
 Annihilation of the first spin contaminant:
 S**2 before annihilation     0.7519,   after     0.7500

 **********************************************************************

            Population analysis using the SCF density.

 **********************************************************************

 Orbital symmetries:
 Alpha Orbitals:
       Occupied  (SG) (SG) (SG) (PI) (PI) (SG) (SG) (SG) (PI) (PI)
                 (SG) (PI) (PI) (DLTA) (DLTA) (SG) (SG) (PI) (SG)
                 (PI) (SG) (PI) (PI)
       Virtual   (SG) (SG) (PI) (PI) (SG) (SG) (PI) (PI) (SG) (SG)
                 (PI) (PI) (SG) (SG) (PI) (PI) (SG) (SG) (SG) (SG)
 Beta  Orbitals:
       Occupied  (SG) (SG) (SG) (PI) (PI) (SG) (SG) (SG) (PI) (PI)
                 (SG) (PI) (PI) (DLTA) (DLTA) (SG) (SG) (SG) (?A)
                 (SG) (PI) (PI)
       Virtual   (?A) (SG) (SG) (?A) (?A) (SG) (SG) (?A) (?A) (SG)
                 (SG) (PI) (PI) (SG) (SG) (?A) (SG) (?A) (SG) (SG)
                 (SG)
 Unable to determine electronic state:  an orbital has unidentified symmetry.
 Alpha  occ. eigenvalues -- -489.98075 -64.41423 -58.57510 -58.57320 -58.57320
 Alpha  occ. eigenvalues --  -26.44231  -9.70963  -7.47346  -7.46323  -7.46321
 Alpha  occ. eigenvalues --   -3.21437  -3.21010  -3.21009  -3.19883  -3.19883
 Alpha  occ. eigenvalues --   -1.69486  -1.03126  -0.85867  -0.75881  -0.75718
 Alpha  occ. eigenvalues --   -0.57474  -0.43737  -0.43730
 Alpha virt. eigenvalues --    0.07189   0.10358   0.10711   0.10781   0.15236
 Alpha virt. eigenvalues --    0.25719   0.27523   0.29143   0.39417   0.78495
 Alpha virt. eigenvalues --    0.78869   0.78885   0.87097   1.13916   1.65384
 Alpha virt. eigenvalues --    1.71817   1.74870   2.13129   7.39860  43.21111
  Beta  occ. eigenvalues -- -489.98075 -64.41423 -58.57511 -58.57320 -58.57320
  Beta  occ. eigenvalues --  -26.39267  -9.70964  -7.47348  -7.46323  -7.46322
  Beta  occ. eigenvalues --   -3.21438  -3.21011  -3.21010  -3.19883  -3.19883
  Beta  occ. eigenvalues --   -1.49958  -1.03131  -0.69887  -0.69690  -0.57435
  Beta  occ. eigenvalues --   -0.43738  -0.43732
  Beta virt. eigenvalues --    0.01194   0.07265   0.10400   0.10788   0.10954
  Beta virt. eigenvalues --    0.15322   0.26469   0.29596   0.34974   0.40043
  Beta virt. eigenvalues --    0.78496   0.78870   0.78884   0.87123   1.13963
  Beta virt. eigenvalues --    1.74337   1.77409   1.84482   2.18147   7.39860
  Beta virt. eigenvalues --   43.21111
          Condensed to atoms (all electrons):
               1          2          3
     1  Br  34.887234   0.224933   0.000181
     2  H    0.224933   0.683960  -0.007435
     3  F    0.000181  -0.007435   8.993448
          Atomic-Atomic Spin Densities.
               1          2          3
     1  Br  -0.000813  -0.000066   0.000328
     2  H   -0.000066   0.000537  -0.000226
     3  F    0.000328  -0.000226   1.000203
 Mulliken charges and spin densities:
               1          2
     1  Br  -0.112348  -0.000551
     2  H    0.098542   0.000246
     3  F    0.013806   1.000305
 Sum of Mulliken charges =   0.00000   1.00000
 Mulliken charges and spin densities with hydrogens summed into heavy atoms:
               1          2
     1  Br  -0.013806  -0.000305
     3  F    0.013806   1.000305
 Electronic spatial extent (au):  <R**2>=            471.7489
 Charge=              0.0000 electrons
 Dipole moment (field-independent basis, Debye):
    X=              0.0000    Y=              0.0000    Z=             -1.6598  Tot=              1.6598
 Quadrupole moment (field-independent basis, Debye-Ang):
   XX=            -24.3245   YY=            -25.2552   ZZ=            -23.5443
   XY=              0.0000   XZ=              0.0000   YZ=              0.0000
 Traceless Quadrupole moment (field-independent basis, Debye-Ang):
   XX=              0.0502   YY=             -0.8805   ZZ=              0.8304
   XY=              0.0000   XZ=              0.0000   YZ=              0.0000
 Octapole moment (field-independent basis, Debye-Ang**2):
  XXX=              0.0000  YYY=              0.0000  ZZZ=              3.5885  XYY=              0.0000
  XXY=              0.0000  XXZ=             -3.4230  XZZ=              0.0000  YZZ=              0.0000
  YYZ=             -0.4425  XYZ=              0.0000
 Hexadecapole moment (field-independent basis, Debye-Ang**3):
 XXXX=            -28.1420 YYYY=            -29.1112 ZZZZ=           -396.2326 XXXY=              0.0000
 XXXZ=              0.0000 YYYX=              0.0000 YYYZ=              0.0000 ZZZX=              0.0000
 ZZZY=              0.0000 XXYY=             -9.5422 XXZZ=            -63.5162 YYZZ=            -73.1965
 XXYZ=              0.0000 YYXZ=              0.0000 ZZXY=              0.0000
 N-N= 5.601780372771D+01 E-N=-6.492461339367D+03  KE= 2.662275347620D+03
 Symmetry A1   KE= 1.939823632231D+03
 Symmetry A2   KE= 4.314507813941D+01
 Symmetry B1   KE= 3.381062430996D+02
 Symmetry B2   KE= 3.412003941507D+02
                          Isotropic Fermi Contact Couplings
        Atom                 a.u.       MegaHertz       Gauss      10(-4) cm-1
     1  Br(79)             0.00049       0.55284       0.19727       0.18441
     2  H(1)               0.00018       0.81094       0.28936       0.27050
     3  F(19)              0.26246    1104.29447     394.03971     368.35299
 --------------------------------------------------------
       Center         ----  Spin Dipole Couplings  ----
                      3XX-RR        3YY-RR        3ZZ-RR
 --------------------------------------------------------
     1   Atom        0.002531      0.001593     -0.004124
     2   Atom       -0.007472     -0.008119      0.015591
     3   Atom        5.758045     -2.880809     -2.877235
 --------------------------------------------------------
                        XY            XZ            YZ
 --------------------------------------------------------
     1   Atom        0.000000      0.000000      0.000000
     2   Atom        0.000000      0.000000      0.000000
     3   Atom        0.000000      0.000000      0.000000
 --------------------------------------------------------


 ---------------------------------------------------------------------------------
              Anisotropic Spin Dipole Couplings in Principal Axis System
 ---------------------------------------------------------------------------------

       Atom             a.u.   MegaHertz   Gauss  10(-4) cm-1        Axes

              Baa    -0.0041    -0.553    -0.197    -0.185  0.0000  0.0000  1.0000
     1 Br(79) Bbb     0.0016     0.214     0.076     0.071  0.0000  1.0000  0.0000
              Bcc     0.0025     0.340     0.121     0.113  1.0000  0.0000  0.0000
 
              Baa    -0.0081    -4.332    -1.546    -1.445  0.0000  1.0000  0.0000
     2 H(1)   Bbb    -0.0075    -3.987    -1.423    -1.330  1.0000  0.0000  0.0000
              Bcc     0.0156     8.318     2.968     2.775  0.0000  0.0000  1.0000
 
              Baa    -2.8808 -1446.816  -516.260  -482.606  0.0000  1.0000  0.0000
     3 F(19)  Bbb    -2.8772 -1445.021  -515.619  -482.007  0.0000  0.0000  1.0000
              Bcc     5.7580  2891.837  1031.879   964.613  1.0000  0.0000  0.0000
 

 ---------------------------------------------------------------------------------

 Calling FoFJK, ICntrl=      2127 FMM=F ISym2X=1 I1Cent= 0 IOpClX= 1 NMat=1 NMatS=1 NMatT=0.
 ***** Axes restored to original set *****
 -------------------------------------------------------------------
 Center     Atomic                   Forces (Hartrees/Bohr)
 Number     Number              X              Y              Z
 -------------------------------------------------------------------
      1       35          -0.010800124    0.000000000    0.000000000
      2        1           0.010174418    0.000000000    0.000000000
      3        9           0.000625706    0.000000000    0.000000000
 -------------------------------------------------------------------
 Cartesian Forces:  Max     0.010800124 RMS     0.004950342

 GradGradGradGradGradGradGradGradGradGradGradGradGradGradGradGradGradGrad
 Berny optimization.
 Search for a local minimum.
 Step number   1 out of a maximum of    2
 All quantities printed in internal units (Hartrees-Bohrs-Radians)
 Second derivative matrix not updated -- first step.
 The second derivative matrix:
                          X1        Y1        Z1        X2        Y2
           X1           0.21398
           Y1           0.00000   1.00000
           Z1           0.00000   0.00000   1.00000
           X2          -0.21398   0.00000   0.00000   0.21398
           Y2           0.00000   0.00000   0.00000   0.00000   1.00000
           Z2           0.00000   0.00000   0.00000   0.00000   0.00000
           X3           0.00000   0.00000   0.00000   0.00000   0.00000
           Y3           0.00000   0.00000   0.00000   0.00000   0.00000
           Z3           0.00000   0.00000   0.00000   0.00000   0.00000
                          Z2        X3        Y3        Z3
           Z2           1.00000
           X3           0.00000   1.00000
           Y3           0.00000   0.00000   1.00000
           Z3           0.00000   0.00000   0.00000   1.00000
 ITU=  0
     Eigenvalues ---    0.26969   0.84334   1.00000   1.00000
 Angle between quadratic step and forces=  36.49 degrees.
 ClnCor:  largest displacement from symmetrization is 1.13D-18 for atom     2.
 Linear search not attempted -- first point.
 ClnCor:  largest displacement from symmetrization is 6.99D-48 for atom     3.
 TrRot= -0.011406  0.000000  0.000000  0.000000  0.000000  0.000000
 Variable       Old X    -DE/DX   Delta X   Delta X   Delta X     New X
                                 (Linear)    (Quad)   (Total)
    X1       -4.72432  -0.01080   0.00000  -0.00733  -0.01873  -4.74305
    Y1       -1.76280   0.00000   0.00000   0.00000   0.00000  -1.76280
    Z1        0.00000   0.00000   0.00000   0.00000   0.00000   0.00000
    X2       -7.44552   0.01017   0.00000   0.04065   0.02924  -7.41628
    Y2       -1.76280   0.00000   0.00000   0.00000   0.00000  -1.76280
    Z2        0.00000   0.00000   0.00000   0.00000   0.00000   0.00000
    X3      -12.34775   0.00063   0.00000   0.00090  -0.01051 -12.35826
    Y3       -1.76280   0.00000   0.00000   0.00000   0.00000  -1.76280
    Z3        0.00000   0.00000   0.00000   0.00000   0.00000   0.00000
         Item               Value     Threshold  Converged?
 Maximum Force            0.010800     0.000450     NO 
 RMS     Force            0.004950     0.000300     NO 
 Maximum Displacement     0.029241     0.001800     NO 
 RMS     Displacement     0.012094     0.001200     NO 
 Predicted change in Energy=-1.917998D-04
 GradGradGradGradGradGradGradGradGradGradGradGradGradGradGradGradGradGrad

 1\1\GINC-NODE1\Force\UHF\6-31+G\Br1F1H1(2)\ZONGZI\01-Nov-2017\0\\# for
 ce uhf/6-31+g\\Title Card Required\\0,2\Br,-2.49999994,-0.93283581,0.\
 H,-3.93999994,-0.93283581,0.\F,-6.5341478,-0.93283581,0.\\Version=ES64
 L-G09RevD.01\HF=-2669.7139146\S2=0.751924\S2-1=0.\S2A=0.750003\RMSD=3.
 198e-09\RMSF=4.950e-03\Dipole=-0.6530017,0.,0.\Quadrupole=0.6173549,-0
 .6546454,0.0372905,0.,0.,0.\PG=C*V [C*(F1H1Br1)]\\@


 I LOVE THOSE WHO LONG FOR THE IMPOSSIBLE.

                                 -- GOETHE
 Job cpu time:       0 days  0 hours  0 minutes  1.5 seconds.
 File lengths (MBytes):  RWF=      5 Int=      0 D2E=      0 Chk=      2 Scr=      1
 Normal termination of Gaussian 09 at Wed Nov  1 18:27:46 2017.
